17
	Energy:      -5.2717551
C         -4.04402        2.54474        0.13549
C         -2.74837        3.31744       -0.05363
H         -4.90291        3.21716        0.04570
H         -4.08091        2.07669        1.12438
H         -4.14661        1.75977       -0.62058
C         -1.52880        2.40396        0.06627
H         -2.69215        4.11431        0.69708
H         -2.75756        3.79922       -1.03827
C         -0.22865        3.18455       -0.12461
H         -1.59201        1.60612       -0.68381
H         -1.52651        1.92128        1.05123
C          0.98717        2.27937       -0.00637
H         -0.15852        3.98062        0.62577
H         -0.22420        3.66568       -1.10960
H          1.03017        1.80703        0.98023
H          1.90558        2.85806       -0.14624
H          0.96403        1.49027       -0.76475
