48
	Energy:      62.0957127
C         -4.73084        2.23804        1.54456
C         -4.89098        1.24637        2.51658
C         -4.14700        0.07360        2.44425
C         -3.23582       -0.10973        1.40464
C         -3.05651        0.88275        0.43161
C         -3.81709        2.07561        0.48286
C         -3.65559        3.11450       -0.55315
C         -4.45922        3.08064       -1.70630
C         -4.33901        4.07046       -2.68260
C         -3.42660        5.11176       -2.53019
C         -2.61772        5.15765       -1.39560
C         -2.71631        4.15369       -0.42678
O         -2.17629        0.77000       -0.61842
O         -1.94063        4.22688        0.70393
C         -0.56706        3.95070        0.40272
C         -1.19696       -0.26588       -0.55099
C         -0.17192       -0.01255       -1.65352
Cl        -5.71313        3.65779        1.69922
Br        -5.43757        4.00673       -4.22030
C          0.92943       -1.06889       -1.65052
C          1.97034       -0.79185       -2.72313
C          0.23550        3.80380        1.70452
C          0.20963        5.09691        2.52062
C         -0.28010        2.63972        2.55133
H         -5.60027        1.38346        3.32901
H         -4.27874       -0.70067        3.19617
H         -2.68439       -1.04399        1.37553
H         -5.18432        2.27966       -1.83114
H         -3.34459        5.89347       -3.28033
H         -1.92450        5.98270       -1.26129
H         -0.14146        4.77125       -0.18815
H         -0.48259        3.02487       -0.18004
H         -1.67772       -1.23817       -0.70957
H         -0.68807       -0.25306        0.42036
H          0.26170        0.98664       -1.52180
H         -0.67936        0.00675       -2.62610
H          0.49380       -2.06077       -1.81774
H          1.42171       -1.09168       -0.67125
H          1.51672       -0.78869       -3.71928
H          2.74716       -1.56267       -2.70535
H          2.45129        0.17816       -2.56096
H          1.27770        3.59279        1.43382
H          0.84435        5.00559        3.40851
H         -0.80309        5.34414        2.85599
H          0.58567        5.93707        1.92729
H          0.33793        2.51020        3.44622
H         -0.24362        1.70398        1.98496
H         -1.31277        2.80101        2.87783
